TITLE = "/u/dorislee/usrp/data/sphppi3D/torus.0000.vtk: "
VARIABLES = "X", "Y", "p"
ZONE T="DOMAIN 0", N=25155, E=49152, F=FEBLOCK, ET=TRIANGLE

  7.454971e-02   8.231346e-02   6.840404e-02   7.552776e-02   8.069539e-02   8.909916e-02   8.684106e-02   9.588486e-02   9.298674e-02   1.026706e-01
  9.913241e-02   1.094562e-01   1.052781e-01   1.162420e-01   1.114238e-01   1.230277e-01   1.175694e-01   1.298133e-01   1.237151e-01   1.365990e-01
  1.298608e-01   1.433847e-01   1.360065e-01   1.501704e-01   1.421521e-01   1.569561e-01   1.482978e-01   1.637418e-01   1.544435e-01   1.705275e-01
  1.605892e-01   1.773132e-01   1.667348e-01   1.840989e-01   1.728805e-01   1.908846e-01   1.790262e-01   1.976703e-01   1.851719e-01   2.044560e-01
  1.913175e-01   2.112417e-01   1.974632e-01   2.180274e-01   2.036089e-01   2.248131e-01   2.097546e-01   2.315988e-01   2.159003e-01   2.383845e-01
  2.220459e-01   2.451702e-01   2.281916e-01   2.519559e-01   2.343373e-01   2.587416e-01   2.404829e-01   2.655273e-01   2.466286e-01   2.723130e-01
  2.527743e-01   2.790987e-01   2.589200e-01   2.858844e-01   2.650656e-01   2.926701e-01   2.712113e-01   2.994558e-01   2.773570e-01   3.062415e-01
  2.835027e-01   3.130272e-01   2.896484e-01   3.198129e-01   2.957940e-01   3.265986e-01   3.019397e-01   3.333843e-01   3.080854e-01   3.401700e-01
  3.142310e-01   3.469557e-01   3.203767e-01   3.537414e-01   3.265224e-01   3.605271e-01   3.326681e-01   3.673128e-01   3.388138e-01   3.740985e-01
  3.449594e-01   3.808842e-01   3.511051e-01   3.876698e-01   3.572508e-01   3.944556e-01   3.633965e-01   4.012412e-01   3.695421e-01   4.080270e-01
  3.756878e-01   4.148127e-01   3.818335e-01   4.215983e-01   3.879791e-01   4.283840e-01   3.941248e-01   4.351697e-01   4.002705e-01   4.419554e-01
  4.064162e-01   4.487411e-01   4.125618e-01   4.555268e-01   4.187075e-01   4.623125e-01   4.248532e-01   4.690982e-01   4.309989e-01   4.758839e-01
  4.371446e-01   4.826697e-01   4.432902e-01   4.894553e-01   4.494359e-01   4.962410e-01   4.555816e-01   5.030267e-01   4.617273e-01   5.098124e-01
  4.678729e-01   5.165981e-01   4.740186e-01   5.233838e-01   4.801643e-01   5.301695e-01   4.863099e-01   5.369552e-01   4.924556e-01   5.437409e-01
  4.986013e-01   5.505266e-01   5.047470e-01   5.573123e-01   5.108926e-01   5.640980e-01   5.170383e-01   5.708837e-01   5.231840e-01   5.776694e-01
  5.293297e-01   5.844551e-01   5.354753e-01   5.912408e-01   5.416210e-01   5.980265e-01   5.477667e-01   6.048122e-01   5.539124e-01   6.115979e-01
  5.600581e-01   6.183836e-01   5.662037e-01   6.251693e-01   5.723494e-01   6.319550e-01   5.784951e-01   6.387407e-01   5.846407e-01   6.455263e-01
  5.907865e-01   6.523121e-01   5.969321e-01   6.590977e-01   6.030778e-01   6.658834e-01   6.092235e-01   6.726692e-01   6.153691e-01   6.794549e-01
  6.215149e-01   6.862406e-01   6.276605e-01   6.930262e-01   6.338062e-01   6.998119e-01   6.399518e-01   7.065976e-01   6.460975e-01   7.133834e-01
  6.522432e-01   7.201691e-01   6.583889e-01   7.269547e-01   6.645345e-01   7.337404e-01   6.706802e-01   7.405261e-01   6.768259e-01   7.473118e-01
  6.829716e-01   7.540975e-01   6.891173e-01   7.608832e-01   6.952630e-01   7.676690e-01   7.014086e-01   7.744546e-01   7.075542e-01   7.812403e-01
  7.136999e-01   7.880260e-01   7.198456e-01   7.948117e-01   7.259913e-01   8.015974e-01   7.321370e-01   8.083831e-01   7.382826e-01   8.151687e-01
  7.444283e-01   8.219545e-01   7.505740e-01   8.287402e-01   7.567197e-01   8.355259e-01   7.628654e-01   8.423116e-01   7.690110e-01   8.490973e-01
  7.751567e-01   8.558830e-01   7.813023e-01   8.626687e-01   7.874481e-01   8.694544e-01   7.935937e-01   8.762401e-01   7.997394e-01   8.830258e-01
  8.058851e-01   8.898115e-01   8.120307e-01   8.965971e-01   8.181764e-01   9.033829e-01   8.243221e-01   9.101686e-01   8.304678e-01   9.169542e-01
  8.366135e-01   9.237400e-01   8.427591e-01   9.305257e-01   8.489048e-01   9.373114e-01   8.550505e-01   9.440970e-01   8.995724e-02   8.254142e-02
  9.737308e-02   1.047889e-01   1.122047e-01   1.196206e-01   1.270364e-01   1.344522e-01   1.418681e-01   1.492839e-01   1.566997e-01   1.641156e-01
  1.715314e-01   1.789472e-01   1.863630e-01   1.937789e-01   2.011947e-01   2.086105e-01   2.160264e-01   2.234422e-01   2.308580e-01   2.382739e-01
  2.456897e-01   2.531055e-01   2.605214e-01   2.679372e-01   2.753530e-01   2.827688e-01   2.901847e-01   2.976005e-01   3.050163e-01   3.124322e-01
  3.198480e-01   3.272638e-01   3.346797e-01   3.420955e-01   3.495113e-01   3.569271e-01   3.643430e-01   3.717588e-01   3.791746e-01   3.865905e-01
  3.940063e-01   4.014221e-01   4.088380e-01   4.162538e-01   4.236696e-01   4.310854e-01   4.385013e-01   4.459171e-01   4.533330e-01   4.607488e-01
  4.681646e-01   4.755804e-01   4.829963e-01   4.904121e-01   4.978279e-01   5.052437e-01   5.126596e-01   5.200754e-01   5.274913e-01   5.349070e-01
  5.423229e-01   5.497388e-01   5.571546e-01   5.645704e-01   5.719862e-01   5.794020e-01   5.868179e-01   5.942338e-01   6.016496e-01   6.090654e-01
  6.164812e-01   6.238970e-01   6.313129e-01   6.387287e-01   6.461445e-01   6.535603e-01   6.609762e-01   6.683921e-01   6.758079e-01   6.832237e-01
  6.906395e-01   6.980553e-01   7.054712e-01   7.128870e-01   7.203028e-01   7.277187e-01   7.351345e-01   7.425503e-01   7.499662e-01   7.573820e-01
  7.647978e-01   7.722136e-01   7.796295e-01   7.870454e-01   7.944611e-01   8.018770e-01   8.092928e-01   8.167086e-01   8.241245e-01   8.315403e-01
  8.389562e-01   8.463719e-01   8.537877e-01   8.612036e-01   8.686194e-01   8.760353e-01   8.834511e-01   8.908669e-01   8.982828e-01   9.056986e-01
  9.131145e-01   9.205303e-01   9.279460e-01   9.353619e-01   9.427778e-01   9.501936e-01   9.576094e-01   9.650252e-01   9.724411e-01   9.798569e-01
  9.872728e-01   9.946886e-01   1.002104e+00   1.009520e+00   1.016936e+00   1.024352e+00   1.031768e+00   9.746992e-02   8.943477e-02   1.055051e-01
  1.135402e-01   1.215754e-01   1.296105e-01   1.376457e-01   1.456808e-01   1.537160e-01   1.617512e-01   1.697863e-01   1.778215e-01   1.858566e-01
  1.938918e-01   2.019269e-01   2.099621e-01   2.179972e-01   2.260324e-01   2.340675e-01   2.421027e-01   2.501378e-01   2.581730e-01   2.662081e-01
  2.742433e-01   2.822785e-01   2.903136e-01   2.983488e-01   3.063839e-01   3.144191e-01   3.224542e-01   3.304894e-01   3.385246e-01   3.465597e-01
  3.545949e-01   3.626300e-01   3.706652e-01   3.787003e-01   3.867355e-01   3.947707e-01   4.028058e-01   4.108409e-01   4.188761e-01   4.269112e-01
  4.349464e-01   4.429816e-01   4.510168e-01   4.590518e-01   4.670870e-01   4.751222e-01   4.831573e-01   4.911925e-01   4.992276e-01   5.072628e-01
  5.152979e-01   5.233331e-01   5.313683e-01   5.394034e-01   5.474386e-01   5.554737e-01   5.635089e-01   5.715441e-01   5.795792e-01   5.876144e-01
  5.956495e-01   6.036847e-01   6.117198e-01   6.197550e-01   6.277901e-01   6.358253e-01   6.438605e-01   6.518956e-01   6.599307e-01   6.679659e-01
  6.760011e-01   6.840362e-01   6.920714e-01   7.001065e-01   7.081417e-01   7.161768e-01   7.242120e-01   7.322472e-01   7.402822e-01   7.483174e-01
  7.563526e-01   7.643878e-01   7.724229e-01   7.804580e-01   7.884932e-01   7.965283e-01   8.045635e-01   8.125987e-01   8.206338e-01   8.286690e-01
  8.367041e-01   8.447393e-01   8.527744e-01   8.608096e-01   8.688447e-01   8.768799e-01   8.849151e-01   8.929502e-01   9.009854e-01   9.090206e-01
  9.170557e-01   9.250908e-01   9.331260e-01   9.411612e-01   9.491963e-01   9.572315e-01   9.652666e-01   9.733018e-01   9.813369e-01   9.893721e-01
  9.974073e-01   1.005442e+00   1.013478e+00   1.021513e+00   1.029548e+00   1.037583e+00   1.045618e+00   1.053653e+00   1.061688e+00   1.069724e+00
  1.077759e+00   1.085794e+00   1.093829e+00   1.101864e+00   1.109899e+00   1.117935e+00   1.048405e-01   9.619777e-02   1.134833e-01   1.221261e-01
  1.307688e-01   1.394116e-01   1.480544e-01   1.566972e-01   1.653399e-01   1.739827e-01   1.826254e-01   1.912682e-01   1.999110e-01   2.085538e-01
  2.171965e-01   2.258393e-01   2.344821e-01   2.431248e-01   2.517676e-01   2.604104e-01   2.690531e-01   2.776959e-01   2.863387e-01   2.949814e-01
  3.036242e-01   3.122670e-01   3.209097e-01   3.295525e-01   3.381953e-01   3.468381e-01   3.554808e-01   3.641236e-01   3.727663e-01   3.814091e-01
  3.900519e-01   3.986946e-01   4.073374e-01   4.159802e-01   4.246230e-01   4.332657e-01   4.419085e-01   4.505513e-01   4.591940e-01   4.678368e-01
  4.764796e-01   4.851224e-01   4.937651e-01   5.024078e-01   5.110506e-01   5.196934e-01   5.283362e-01   5.369789e-01   5.456217e-01   5.542645e-01
  5.629073e-01   5.715500e-01   5.801927e-01   5.888355e-01   5.974783e-01   6.061211e-01   6.147639e-01   6.234066e-01   6.320494e-01   6.406922e-01
  6.493350e-01   6.579777e-01   6.666204e-01   6.752632e-01   6.839060e-01   6.925488e-01   7.011915e-01   7.098343e-01   7.184771e-01   7.271199e-01
  7.357626e-01   7.444054e-01   7.530481e-01   7.616909e-01   7.703337e-01   7.789764e-01   7.876192e-01   7.962620e-01   8.049048e-01   8.135476e-01
  8.221903e-01   8.308331e-01   8.394758e-01   8.481186e-01   8.567614e-01   8.654041e-01   8.740469e-01   8.826897e-01   8.913324e-01   8.999752e-01
  9.086180e-01   9.172608e-01   9.259035e-01   9.345463e-01   9.431890e-01   9.518318e-01   9.604746e-01   9.691173e-01   9.777602e-01   9.864029e-01
  9.950456e-01   1.003688e+00   1.012331e+00   1.020974e+00   1.029617e+00   1.038260e+00   1.046902e+00   1.055545e+00   1.064188e+00   1.072831e+00
  1.081473e+00   1.090116e+00   1.098759e+00   1.107402e+00   1.116044e+00   1.124687e+00   1.133330e+00   1.141973e+00   1.150616e+00   1.159258e+00
  1.167901e+00   1.176544e+00   1.185187e+00   1.193829e+00   1.202472e+00   1.120583e-01   1.028206e-01   1.212961e-01   1.305339e-01   1.397717e-01
  1.490095e-01   1.582473e-01   1.674850e-01   1.767228e-01   1.859606e-01   1.951984e-01   2.044362e-01   2.136740e-01   2.229117e-01   2.321495e-01
  2.413873e-01   2.506251e-01   2.598629e-01   2.691007e-01   2.783385e-01   2.875762e-01   2.968140e-01   3.060518e-01   3.152896e-01   3.245274e-01
  3.337651e-01   3.430029e-01   3.522407e-01   3.614785e-01   3.707163e-01   3.799541e-01   3.891919e-01   3.984296e-01   4.076674e-01   4.169052e-01
  4.261430e-01   4.353808e-01   4.446186e-01   4.538563e-01   4.630941e-01   4.723319e-01   4.815697e-01   4.908075e-01   5.000453e-01   5.092831e-01
  5.185209e-01   5.277586e-01   5.369964e-01   5.462342e-01   5.554720e-01   5.647098e-01   5.739475e-01   5.831853e-01   5.924231e-01   6.016609e-01
  6.108987e-01   6.201364e-01   6.293743e-01   6.386120e-01   6.478499e-01   6.570876e-01   6.663254e-01   6.755632e-01   6.848010e-01   6.940387e-01
  7.032766e-01   7.125143e-01   7.217521e-01   7.309899e-01   7.402277e-01   7.494655e-01   7.587032e-01   7.679410e-01   7.771788e-01   7.864166e-01
  7.956544e-01   8.048921e-01   8.141299e-01   8.233677e-01   8.326055e-01   8.418433e-01   8.510811e-01   8.603188e-01   8.695567e-01   8.787944e-01
  8.880323e-01   8.972700e-01   9.065078e-01   9.157456e-01   9.249834e-01   9.342211e-01   9.434589e-01   9.526967e-01   9.619345e-01   9.711723e-01
  9.804101e-01   9.896478e-01   9.988856e-01   1.008123e+00   1.017361e+00   1.026599e+00   1.035837e+00   1.045075e+00   1.054312e+00   1.063550e+00
  1.072788e+00   1.082026e+00   1.091264e+00   1.100501e+00   1.109739e+00   1.118977e+00   1.128215e+00   1.137452e+00   1.146690e+00   1.155928e+00
  1.165166e+00   1.174404e+00   1.183641e+00   1.192879e+00   1.202117e+00   1.211355e+00   1.220592e+00   1.229830e+00   1.239068e+00   1.248306e+00
  1.257544e+00   1.266781e+00   1.276019e+00   1.285257e+00   1.191128e-01   1.092935e-01   1.289322e-01   1.387515e-01   1.485709e-01   1.583902e-01
  1.682095e-01   1.780289e-01   1.878482e-01   1.976675e-01   2.074869e-01   2.173062e-01   2.271256e-01   2.369449e-01   2.467642e-01   2.565835e-01
  2.664029e-01   2.762222e-01   2.860416e-01   2.958609e-01   3.056802e-01   3.154996e-01   3.253189e-01   3.351383e-01   3.449576e-01   3.547769e-01
  3.645963e-01   3.744156e-01   3.842350e-01   3.940543e-01   4.038736e-01   4.136930e-01   4.235123e-01   4.333316e-01   4.431510e-01   4.529703e-01
  4.627897e-01   4.726090e-01   4.824283e-01   4.922477e-01   5.020670e-01   5.118864e-01   5.217057e-01   5.315250e-01   5.413443e-01   5.511637e-01
  5.609830e-01   5.708023e-01   5.806217e-01   5.904410e-01   6.002604e-01   6.100797e-01   6.198990e-01   6.297184e-01   6.395378e-01   6.493571e-01
  6.591763e-01   6.689957e-01   6.788151e-01   6.886345e-01   6.984538e-01   7.082731e-01   7.180924e-01   7.279118e-01   7.377311e-01   7.475505e-01
  7.573698e-01   7.671891e-01   7.770085e-01   7.868278e-01   7.966471e-01   8.064665e-01   8.162858e-01   8.261051e-01   8.359245e-01   8.457438e-01
  8.555631e-01   8.653825e-01   8.752018e-01   8.850212e-01   8.948405e-01   9.046598e-01   9.144792e-01   9.242985e-01   9.341179e-01   9.439372e-01
  9.537565e-01   9.635758e-01   9.733952e-01   9.832146e-01   9.930339e-01   1.002853e+00   1.012673e+00   1.022492e+00   1.032311e+00   1.042131e+00
  1.051950e+00   1.061769e+00   1.071589e+00   1.081408e+00   1.091227e+00   1.101047e+00   1.110866e+00   1.120685e+00   1.130505e+00   1.140324e+00
  1.150143e+00   1.159963e+00   1.169782e+00   1.179601e+00   1.189421e+00   1.199240e+00   1.209059e+00   1.218879e+00   1.228698e+00   1.238517e+00
  1.248337e+00   1.258156e+00   1.267975e+00   1.277795e+00   1.287614e+00   1.297433e+00   1.307253e+00   1.317072e+00   1.326891e+00   1.336711e+00
  1.346530e+00   1.356349e+00   1.366169e+00   1.259937e-01   1.156071e-01   1.363803e-01   1.467669e-01   1.571535e-01   1.675400e-01   1.779266e-01
  1.883132e-01   1.986998e-01   2.090864e-01   2.194729e-01   2.298595e-01   2.402461e-01   2.506327e-01   2.610193e-01   2.714058e-01   2.817924e-01
  2.921790e-01   3.025656e-01   3.129522e-01   3.233387e-01   3.337253e-01   3.441119e-01   3.544985e-01   3.648851e-01   3.752716e-01   3.856582e-01
  3.960448e-01   4.064314e-01   4.168180e-01   4.272045e-01   4.375911e-01   4.479777e-01   4.583643e-01   4.687509e-01   4.791374e-01   4.895240e-01
  4.999106e-01   5.102972e-01   5.206838e-01   5.310704e-01   5.414569e-01   5.518435e-01   5.622301e-01   5.726166e-01   5.830033e-01   5.933898e-01
  6.037764e-01   6.141630e-01   6.245496e-01   6.349362e-01   6.453227e-01   6.557093e-01   6.660959e-01   6.764824e-01   6.868690e-01   6.972556e-01
  7.076422e-01   7.180288e-01   7.284154e-01   7.388020e-01   7.491885e-01   7.595751e-01   7.699617e-01   7.803482e-01   7.907348e-01   8.011214e-01
  8.115079e-01   8.218946e-01   8.322812e-01   8.426678e-01   8.530543e-01   8.634409e-01   8.738275e-01   8.842140e-01   8.946006e-01   9.049872e-01
  9.153737e-01   9.257603e-01   9.361470e-01   9.465336e-01   9.569201e-01   9.673067e-01   9.776933e-01   9.880798e-01   9.984664e-01   1.008853e+00
  1.019240e+00   1.029626e+00   1.040013e+00   1.050399e+00   1.060786e+00   1.071172e+00   1.081559e+00   1.091946e+00   1.102332e+00   1.112719e+00
  1.123105e+00   1.133492e+00   1.143879e+00   1.154265e+00   1.164652e+00   1.175038e+00   1.185425e+00   1.195811e+00   1.206198e+00   1.216585e+00
  1.226971e+00   1.237358e+00   1.247744e+00   1.258131e+00   1.268517e+00   1.278904e+00   1.289291e+00   1.299677e+00   1.310064e+00   1.320450e+00
  1.330837e+00   1.341224e+00   1.351610e+00   1.361997e+00   1.372383e+00   1.382770e+00   1.393156e+00   1.403543e+00   1.413930e+00   1.424316e+00
  1.434703e+00   1.445089e+00   1.326910e-01   1.217523e-01   1.436297e-01   1.545683e-01   1.655070e-01   1.764457e-01   1.873844e-01   1.983231e-01
  2.092618e-01   2.202004e-01   2.311391e-01   2.420778e-01   2.530165e-01   2.639552e-01   2.748939e-01   2.858325e-01   2.967712e-01   3.077099e-01
  3.186486e-01   3.295873e-01   3.405259e-01   3.514646e-01   3.624033e-01   3.733420e-01   3.842807e-01   3.952194e-01   4.061581e-01   4.170967e-01
  4.280354e-01   4.389741e-01   4.499128e-01   4.608515e-01   4.717901e-01   4.827288e-01   4.936675e-01   5.046062e-01   5.155449e-01   5.264835e-01
  5.374222e-01   5.483609e-01   5.592996e-01   5.702383e-01   5.811769e-01   5.921156e-01   6.030543e-01   6.139930e-01   6.249317e-01   6.358703e-01
  6.468090e-01   6.577477e-01   6.686864e-01   6.796251e-01   6.905638e-01   7.015024e-01   7.124411e-01   7.233799e-01   7.343185e-01   7.452572e-01
  7.561959e-01   7.671346e-01   7.780733e-01   7.890119e-01   7.999506e-01   8.108893e-01   8.218280e-01   8.327667e-01   8.437053e-01   8.546440e-01
  8.655827e-01   8.765214e-01   8.874601e-01   8.983988e-01   9.093374e-01   9.202761e-01   9.312148e-01   9.421535e-01   9.530922e-01   9.640309e-01
  9.749696e-01   9.859082e-01   9.968469e-01   1.007786e+00   1.018724e+00   1.029663e+00   1.040602e+00   1.051540e+00   1.062479e+00   1.073418e+00
  1.084356e+00   1.095295e+00   1.106234e+00   1.117172e+00   1.128111e+00   1.139050e+00   1.149989e+00   1.160927e+00   1.171866e+00   1.182804e+00
  1.193743e+00   1.204682e+00   1.215621e+00   1.226559e+00   1.237498e+00   1.248437e+00   1.259375e+00   1.270314e+00   1.281253e+00   1.292191e+00
  1.303130e+00   1.314069e+00   1.325007e+00   1.335946e+00   1.346885e+00   1.357823e+00   1.368762e+00   1.379701e+00   1.390639e+00   1.401578e+00
  1.412517e+00   1.423455e+00   1.434394e+00   1.445333e+00   1.456272e+00   1.467210e+00   1.478149e+00   1.489088e+00   1.500026e+00   1.510965e+00
  1.521904e+00   1.391948e-01   1.277200e-01   1.506697e-01   1.621445e-01   1.736194e-01   1.850942e-01   1.965691e-01   2.080439e-01   2.195188e-01
  2.309936e-01   2.424684e-01   2.539433e-01   2.654181e-01   2.768930e-01   2.883678e-01   2.998427e-01   3.113175e-01   3.227923e-01   3.342672e-01
  3.457420e-01   3.572169e-01   3.686917e-01   3.801666e-01   3.916414e-01   4.031163e-01   4.145911e-01   4.260660e-01   4.375408e-01   4.490156e-01
  4.604905e-01   4.719653e-01   4.834402e-01   4.949150e-01   5.063899e-01   5.178647e-01   5.293396e-01   5.408144e-01   5.522892e-01   5.637640e-01
  5.752389e-01   5.867137e-01   5.981886e-01   6.096634e-01   6.211383e-01   6.326131e-01   6.440880e-01   6.555628e-01   6.670377e-01   6.785125e-01
  6.899874e-01   7.014622e-01   7.129370e-01   7.244118e-01   7.358867e-01   7.473616e-01   7.588364e-01   7.703112e-01   7.817861e-01   7.932609e-01
  8.047358e-01   8.162106e-01   8.276854e-01   8.391603e-01   8.506352e-01   8.621100e-01   8.735849e-01   8.850597e-01   8.965345e-01   9.080094e-01
  9.194843e-01   9.309591e-01   9.424339e-01   9.539087e-01   9.653836e-01   9.768584e-01   9.883333e-01   9.998081e-01   1.011283e+00   1.022758e+00
  1.034233e+00   1.045708e+00   1.057182e+00   1.068657e+00   1.080132e+00   1.091607e+00   1.103082e+00   1.114557e+00   1.126031e+00   1.137506e+00
  1.148981e+00   1.160456e+00   1.171931e+00   1.183406e+00   1.194880e+00   1.206355e+00   1.217830e+00   1.229305e+00   1.240780e+00   1.252255e+00
  1.263730e+00   1.275204e+00   1.286679e+00   1.298154e+00   1.309629e+00   1.321104e+00   1.332579e+00   1.344053e+00   1.355528e+00   1.367003e+00
  1.378478e+00   1.389953e+00   1.401428e+00   1.412903e+00   1.424377e+00   1.435852e+00   1.447327e+00   1.458802e+00   1.470277e+00   1.481752e+00
  1.493226e+00   1.504701e+00   1.516176e+00   1.527651e+00   1.539126e+00   1.550601e+00   1.562075e+00   1.573550e+00   1.585025e+00   1.596500e+00
  1.454958e-01   1.335016e-01   1.574901e-01   1.694844e-01   1.814787e-01   1.934730e-01   2.054673e-01   2.174615e-01   2.294558e-01   2.414501e-01
  2.534443e-01   2.654386e-01   2.774329e-01   2.894272e-01   3.014215e-01   3.134158e-01   3.254101e-01   3.374043e-01   3.493986e-01   3.613929e-01
  3.733872e-01   3.853815e-01   3.973757e-01   4.093700e-01   4.213643e-01   4.333586e-01   4.453529e-01   4.573471e-01   4.693414e-01   4.813357e-01
  4.933300e-01   5.053242e-01   5.173185e-01   5.293128e-01   5.413071e-01   5.533014e-01   5.652957e-01   5.772899e-01   5.892842e-01   6.012785e-01
  6.132728e-01   6.252671e-01   6.372613e-01   6.492556e-01   6.612499e-01   6.732442e-01   6.852384e-01   6.972327e-01   7.092270e-01   7.212213e-01
  7.332156e-01   7.452098e-01   7.572041e-01   7.691984e-01   7.811927e-01   7.931870e-01   8.051813e-01   8.171756e-01   8.291698e-01   8.411641e-01
  8.531584e-01   8.651527e-01   8.771470e-01   8.891413e-01   9.011356e-01   9.131298e-01   9.251240e-01   9.371184e-01   9.491127e-01   9.611070e-01
  9.731013e-01   9.850954e-01   9.970897e-01   1.009084e+00   1.021078e+00   1.033073e+00   1.045067e+00   1.057061e+00   1.069055e+00   1.081050e+00
  1.093044e+00   1.105038e+00   1.117033e+00   1.129027e+00   1.141021e+00   1.153015e+00   1.165010e+00   1.177004e+00   1.188998e+00   1.200993e+00
  1.212987e+00   1.224981e+00   1.236975e+00   1.248970e+00   1.260964e+00   1.272958e+00   1.284953e+00   1.296947e+00   1.308941e+00   1.320935e+00
  1.332930e+00   1.344924e+00   1.356918e+00   1.368912e+00   1.380907e+00   1.392901e+00   1.404895e+00   1.416890e+00   1.428884e+00   1.440878e+00
  1.452873e+00   1.464867e+00   1.476861e+00   1.488855e+00   1.500849e+00   1.512844e+00   1.524838e+00   1.536832e+00   1.548827e+00   1.560821e+00
  1.572815e+00   1.584810e+00   1.596804e+00   1.608798e+00   1.620792e+00   1.632787e+00   1.644781e+00   1.656775e+00   1.668769e+00   1.515848e-01
  1.390885e-01   1.640810e-01   1.765772e-01   1.890735e-01   2.015697e-01   2.140660e-01   2.265622e-01   2.390584e-01   2.515546e-01   2.640509e-01
  2.765471e-01   2.890434e-01   3.015396e-01   3.140358e-01   3.265321e-01   3.390283e-01   3.515245e-01   3.640208e-01   3.765170e-01   3.890132e-01
  4.015095e-01   4.140057e-01   4.265020e-01   4.389982e-01   4.514944e-01   4.639907e-01   4.764869e-01   4.889831e-01   5.014794e-01   5.139756e-01
  5.264719e-01   5.389680e-01   5.514643e-01   5.639606e-01   5.764568e-01   5.889530e-01   6.014493e-01   6.139455e-01   6.264417e-01   6.389380e-01
  6.514342e-01   6.639304e-01   6.764266e-01   6.889229e-01   7.014192e-01   7.139153e-01   7.264116e-01   7.389078e-01   7.514041e-01   7.639003e-01
  7.763965e-01   7.888927e-01   8.013890e-01   8.138853e-01   8.263815e-01   8.388777e-01   8.513740e-01   8.638702e-01   8.763664e-01   8.888627e-01
  9.013588e-01   9.138551e-01   9.263514e-01   9.388476e-01   9.513439e-01   9.638401e-01   9.763363e-01   9.888325e-01   1.001329e+00   1.013825e+00
  1.026321e+00   1.038818e+00   1.051314e+00   1.063810e+00   1.076306e+00   1.088802e+00   1.101299e+00   1.113795e+00   1.126291e+00   1.138787e+00
  1.151284e+00   1.163780e+00   1.176276e+00   1.188772e+00   1.201269e+00   1.213765e+00   1.226261e+00   1.238757e+00   1.251253e+00   1.263750e+00
  1.276246e+00   1.288742e+00   1.301238e+00   1.313735e+00   1.326231e+00   1.338727e+00   1.351223e+00   1.363720e+00   1.376216e+00   1.388712e+00
  1.401208e+00   1.413705e+00   1.426201e+00   1.438697e+00   1.451193e+00   1.463689e+00   1.476186e+00   1.488682e+00   1.501178e+00   1.513674e+00
  1.526171e+00   1.538667e+00   1.551163e+00   1.563659e+00   1.576156e+00   1.588652e+00   1.601148e+00   1.613644e+00   1.626140e+00   1.638637e+00
  1.651133e+00   1.663629e+00   1.676126e+00   1.688622e+00   1.701118e+00   1.713614e+00   1.726110e+00   1.738607e+00   1.574528e-01   1.444728e-01
  1.704328e-01   1.834127e-01   1.963927e-01   2.093727e-01   2.223527e-01   2.353327e-01   2.483126e-01   2.612926e-01   2.742726e-01   2.872526e-01
  3.002326e-01   3.132125e-01   3.261925e-01   3.391725e-01   3.521525e-01   3.651324e-01   3.781124e-01   3.910924e-01   4.040724e-01   4.170524e-01
  4.300323e-01   4.430123e-01   4.559923e-01   4.689723e-01   4.819523e-01   4.949322e-01   5.079122e-01   5.208922e-01   5.338721e-01   5.468522e-01
  5.598321e-01   5.728121e-01   5.857921e-01   5.987720e-01   6.117520e-01   6.247320e-01   6.377120e-01   6.506920e-01   6.636719e-01   6.766520e-01
  6.896319e-01   7.026119e-01   7.155918e-01   7.285719e-01   7.415518e-01   7.545317e-01   7.675118e-01   7.804918e-01   7.934718e-01   8.064517e-01
  8.194317e-01   8.324116e-01   8.453916e-01   8.583717e-01   8.713515e-01   8.843316e-01   8.973116e-01   9.102916e-01   9.232715e-01   9.362515e-01
  9.492314e-01   9.622114e-01   9.751914e-01   9.881715e-01   1.001151e+00   1.014131e+00   1.027111e+00   1.040091e+00   1.053071e+00   1.066051e+00
  1.079031e+00   1.092011e+00   1.104991e+00   1.117971e+00   1.130951e+00   1.143931e+00   1.156911e+00   1.169891e+00   1.182871e+00   1.195851e+00
  1.208831e+00   1.221811e+00   1.234791e+00   1.247771e+00   1.260751e+00   1.273731e+00   1.286711e+00   1.299691e+00   1.312671e+00   1.325651e+00
  1.338631e+00   1.351611e+00   1.364591e+00   1.377571e+00   1.390551e+00   1.403531e+00   1.416511e+00   1.429491e+00   1.442471e+00   1.455451e+00
  1.468431e+00   1.481411e+00   1.494390e+00   1.507371e+00   1.520350e+00   1.533331e+00   1.546310e+00   1.559290e+00   1.572271e+00   1.585250e+00
  1.598230e+00   1.611210e+00   1.624190e+00   1.637170e+00   1.650150e+00   1.663130e+00   1.676110e+00   1.689090e+00   1.702070e+00   1.715050e+00
  1.728030e+00   1.741010e+00   1.753990e+00   1.766970e+00   1.779950e+00   1.792930e+00   1.805910e+00   1.630913e-01   1.496465e-01   1.765361e-01
  1.899809e-01   2.034257e-01   2.168705e-01   2.303153e-01   2.437601e-01   2.572049e-01   2.706497e-01   2.840945e-01   2.975394e-01   3.109842e-01
  3.244289e-01   3.378738e-01   3.513185e-01   3.647634e-01   3.782082e-01   3.916530e-01   4.050978e-01   4.185426e-01   4.319874e-01   4.454322e-01
  4.588770e-01   4.723218e-01   4.857666e-01   4.992114e-01   5.126562e-01   5.261010e-01   5.395458e-01   5.529906e-01   5.664354e-01   5.798802e-01
  5.933250e-01   6.067699e-01   6.202146e-01   6.336594e-01   6.471042e-01   6.605490e-01   6.739939e-01   6.874386e-01   7.008834e-01   7.143282e-01
  7.277731e-01   7.412179e-01   7.546627e-01   7.681074e-01   7.815523e-01   7.949971e-01   8.084419e-01   8.218867e-01   8.353314e-01   8.487763e-01
  8.622211e-01   8.756659e-01   8.891107e-01   9.025555e-01   9.160003e-01   9.294451e-01   9.428899e-01   9.563348e-01   9.697795e-01   9.832243e-01
  9.966691e-01   1.010114e+00   1.023559e+00   1.037004e+00   1.050448e+00   1.063893e+00   1.077338e+00   1.090783e+00   1.104228e+00   1.117672e+00
  1.131117e+00   1.144562e+00   1.158007e+00   1.171452e+00   1.184896e+00   1.198341e+00   1.211786e+00   1.225231e+00   1.238676e+00   1.252120e+00
  1.265565e+00   1.279010e+00   1.292455e+00   1.305900e+00   1.319344e+00   1.332789e+00   1.346234e+00   1.359679e+00   1.373124e+00   1.386568e+00
  1.400013e+00   1.413458e+00   1.426903e+00   1.440348e+00   1.453792e+00   1.467237e+00   1.480682e+00   1.494127e+00   1.507572e+00   1.521016e+00
  1.534461e+00   1.547906e+00   1.561351e+00   1.574796e+00   1.588241e+00   1.601685e+00   1.615130e+00   1.628575e+00   1.642020e+00   1.655465e+00
  1.668909e+00   1.682354e+00   1.695799e+00   1.709244e+00   1.722689e+00   1.736133e+00   1.749578e+00   1.763023e+00   1.776468e+00   1.789913e+00
  1.803357e+00   1.816802e+00   1.830247e+00   1.843692e+00   1.857137e+00   1.870581e+00   1.684921e-01   1.546021e-01   1.823822e-01   1.962722e-01
  2.101622e-01   2.240523e-01   2.379423e-01   2.518323e-01   2.657224e-01   2.796124e-01   2.935024e-01   3.073924e-01   3.212825e-01   3.351725e-01
  3.490625e-01   3.629526e-01   3.768426e-01   3.907326e-01   4.046227e-01   4.185127e-01   4.324027e-01   4.462928e-01   4.601828e-01   4.740728e-01
  4.879629e-01   5.018529e-01   5.157430e-01   5.296329e-01   5.435230e-01   5.574130e-01   5.713031e-01   5.851931e-01   5.990831e-01   6.129732e-01
  6.268632e-01   6.407532e-01   6.546433e-01   6.685333e-01   6.824234e-01   6.963134e-01   7.102034e-01   7.240934e-01   7.379835e-01   7.518735e-01
  7.657635e-01   7.796536e-01   7.935435e-01   8.074336e-01   8.213236e-01   8.352137e-01   8.491037e-01   8.629937e-01   8.768837e-01   8.907738e-01
  9.046639e-01   9.185539e-01   9.324439e-01   9.463339e-01   9.602240e-01   9.741140e-01   9.880041e-01   1.001894e+00   1.015784e+00   1.029674e+00
  1.043564e+00   1.057454e+00   1.071344e+00   1.085234e+00   1.099124e+00   1.113014e+00   1.126904e+00   1.140794e+00   1.154684e+00   1.168574e+00
  1.182464e+00   1.196355e+00   1.210245e+00   1.224135e+00   1.238025e+00   1.251915e+00   1.265805e+00   1.279695e+00   1.293585e+00   1.307475e+00
  1.321365e+00   1.335255e+00   1.349145e+00   1.363035e+00   1.376925e+00   1.390815e+00   1.404705e+00   1.418595e+00   1.432485e+00   1.446375e+00
  1.460265e+00   1.474155e+00   1.488045e+00   1.501935e+00   1.515825e+00   1.529715e+00   1.543605e+00   1.557495e+00   1.571386e+00   1.585275e+00
  1.599165e+00   1.613055e+00   1.626945e+00   1.640836e+00   1.654726e+00   1.668616e+00   1.682506e+00   1.696396e+00   1.710286e+00   1.724176e+00
  1.738066e+00   1.751956e+00   1.765846e+00   1.779736e+00   1.793626e+00   1.807516e+00   1.821406e+00   1.835296e+00   1.849186e+00   1.863076e+00
  1.876966e+00   1.890856e+00   1.904746e+00   1.918636e+00   1.932526e+00   1.736474e-01   1.593324e-01   1.879624e-01   2.022774e-01   2.165924e-01
  2.309075e-01   2.452225e-01   2.595375e-01   2.738525e-01   2.881675e-01   3.024825e-01   3.167976e-01   3.311126e-01   3.454276e-01   3.597426e-01
  3.740576e-01   3.883727e-01   4.026876e-01   4.170027e-01   4.313177e-01   4.456327e-01   4.599478e-01   4.742627e-01   4.885778e-01   5.028928e-01
  5.172078e-01   5.315228e-01   5.458378e-01   5.601529e-01   5.744679e-01   5.887829e-01   6.030979e-01   6.174129e-01   6.317279e-01   6.460430e-01
  6.603580e-01   6.746730e-01   6.889880e-01   7.033030e-01   7.176181e-01   7.319331e-01   7.462481e-01   7.605631e-01   7.748781e-01   7.891932e-01
  8.035082e-01   8.178232e-01   8.321382e-01   8.464532e-01   8.607683e-01   8.750833e-01   8.893982e-01   9.037133e-01   9.180283e-01   9.323434e-01